Title="example: 2d finite-element data"
variables ="x","y","u1"
zone N=5,E=0, f=fepoint, ET=triangle

0	-0.01                  3.122
0	0                      4.125
0.01	0                      2.123
0.01	-0.01                 -3.134
0.01    0.01                5.234
